LAMMPS (29 Aug 2024)
  using 1 OpenMP thread(s) per MPI task
Total wall time: 0:00:00
